Created on Fri Mar 25 13:19:19 2022 

        3600 atoms
        4608 bonds
       10152 angles
        7200 dihedrals
        3888 impropers

           6 atom types
           8 bond types
          16 angle types
           5 dihedral types
           1 improper types
           0.000000  45.189999 xlo xhi
           0.000000  39.135687 ylo yhi
           0.000000  36.920399 zlo zhi
         -22.594999   0.000000   0.000000 xy xz yz

Masses

    1    47.867000000 # Ti4+2
    2     1.007940000 # H_
    3    15.999400000 # O_2
    4    15.999400000 # O_2_z
    5    12.010700000 # C_R
    6    12.010700000 # C_3

Bond Coeffs

    1      219.711585        2.098633  # Ti4+2 O_2
    2      257.122395        1.991472  # Ti4+2 O_2_z
    3      357.440381        1.081418  # H_ C_R
    4      331.069389        1.109401  # H_ C_3
    5      714.557442        1.269010  # O_2 C_R
    6      462.655054        1.379256  # C_R C_R
    7      391.669513        1.458000  # C_R C_R
    8      369.943935        1.486000  # C_3 C_R

Angle Coeffs

    1              cosine_periodic      217.315946               1               4 # O_2 Ti4+2 O_2_z
    2              cosine_periodic      201.575951               1               4 # O_2 Ti4+2 O_2
    3              cosine_periodic      235.898764               1               4 # O_2_z Ti4+2 O_2_z
    4              cosine_periodic      157.242631              -1               3 # Ti4+2 O_2 C_R
    5              cosine_periodic      143.017286              -1               3 # Ti4+2 O_2_z Ti4+2
    6              cosine_periodic      122.208548              -1               3 # Ti4+2 O_2 Ti4+2
    7              cosine_periodic      114.578032              -1               3 # H_ C_R C_R
    8              cosine_periodic      222.595017              -1               3 # C_R C_R C_R
    9              cosine_periodic      204.366560              -1               3 # C_R C_R C_R
   10              cosine_periodic      413.556852              -1               3 # O_2 C_R O_2
   11              cosine_periodic      275.428492              -1               3 # O_2 C_R C_R
   12              cosine_periodic      159.858522              -1               3 # H_ C_R O_2
   13                      fourier       75.498766        0.343737        0.374972        0.281246 # H_ C_3 H_
   14                      fourier      121.777217        0.343737        0.374972        0.281246 # H_ C_3 C_R
   15                      fourier      226.550294        0.343737        0.374972        0.281246 # C_R C_3 C_R
   16              cosine_periodic      198.274298              -1               3 # C_R C_R C_3

Dihedral Coeffs

    1        2.245703              -1               2 # Ti4+2 O_2 C_R O_2
    2        1.497136              -1               2 # H_ C_R C_R C_R
    3        0.555556              -1               2 # C_R C_R C_R O_2
    4        0.416667              -1               2 # H_ C_3 C_R C_R
    5        0.083333               1               3 # C_R C_R C_3 H_

Improper Coeffs

    1        2.000000        1.000000       -1.000000        0.000000               0 # H_ C_R C_R C_R

Pair Coeffs

    1        0.017000        2.828603 # Ti4+2 Ti4+2
    2        0.044000        2.571134 # H_ H_
    3        0.060000        3.118146 # O_2 O_2
    4        0.060000        3.118146 # O_2_z O_2_z
    5        0.105000        3.430851 # C_R C_R
    6        0.105000        3.430851 # C_3 C_3

Atoms

       1      999        1     0.00000    9.56977    5.53907    3.05010
       2      999        1     0.00000   13.01314    5.51813    3.05010
       3      999        1     0.00000   11.30959    8.51064    3.05010
       4      999        1     0.00000    9.56977    5.53907    9.25668
       5      999        1     0.00000   13.01314    5.51813    9.25668
       6      999        1     0.00000   11.30959    8.51064    9.25668
       7      999        1     0.00000    0.01209   11.05720    9.25668
       8      999        1     0.00000   -1.72773   14.02877    9.25668
       9      999        1     0.00000    1.71564   14.04971    9.25668
      10      999        1     0.00000    0.01209   11.05720    3.05010
      11      999        1     0.00000   -1.72773   14.02877    3.05010
      12      999        1     0.00000    1.71564   14.04971    3.05010
      13      999        1     0.00000    9.49815    3.74274    0.00000
      14      999        1     0.00000   14.60462    6.35427    0.00000
      15      999        1     0.00000    9.78974    9.47084    0.00000
      16      999        1     0.00000   -1.50776   10.09701    0.00000
      17      999        1     0.00000   -1.79935   15.82510    0.00000
      18      999        1     0.00000    3.30712   13.21358    0.00000
      19      999        1     0.00000    1.80082   15.81473    0.00000
      20      999        1     0.00000   -3.29887   13.22004    0.00000
      21      999        1     0.00000    1.49805   10.10092    0.00000
      22      999        1     0.00000   12.79555    9.46692    0.00000
      23      999        1     0.00000   13.09832    3.75311    0.00000
      24      999        1     0.00000    7.99863    6.34781    0.00000
      25      999        1     0.00000    9.56977    5.53907   15.35693
      26      999        1     0.00000    9.56977    5.53907   27.66372
      27      999        1     0.00000   -1.72773   25.10691    3.05010
      28      999        1     0.00000   -1.72773   25.10691   15.35693
      29      999        1     0.00000   -1.72773   25.10691   27.66372
      30      999        1     0.00000   32.16477    5.53907    3.05010
      31      999        1     0.00000   32.16477    5.53907   15.35693
      32      999        1     0.00000   32.16477    5.53907   27.66372
      33      999        1     0.00000   20.86727   25.10691    3.05010
      34      999        1     0.00000   20.86727   25.10691   15.35693
      35      999        1     0.00000   20.86727   25.10691   27.66372
      36      999        1     0.00000   13.01314    5.51813   15.35693
      37      999        1     0.00000   13.01314    5.51813   27.66372
      38      999        1     0.00000    1.71564   25.08598    3.05010
      39      999        1     0.00000    1.71564   25.08598   15.35693
      40      999        1     0.00000    1.71564   25.08598   27.66372
      41      999        1     0.00000   35.60814    5.51813    3.05010
      42      999        1     0.00000   35.60814    5.51813   15.35693
      43      999        1     0.00000   35.60814    5.51813   27.66372
      44      999        1     0.00000   24.31064   25.08598    3.05010
      45      999        1     0.00000   24.31064   25.08598   15.35693
      46      999        1     0.00000   24.31064   25.08598   27.66372
      47      999        1     0.00000   11.30959    8.51064   15.35693
      48      999        1     0.00000   11.30959    8.51064   27.66372
      49      999        1     0.00000    0.01209   28.07849    3.05010
      50      999        1     0.00000    0.01209   28.07849   15.35693
      51      999        1     0.00000    0.01209   28.07849   27.66372
      52      999        1     0.00000   33.90459    8.51064    3.05010
      53      999        1     0.00000   33.90459    8.51064   15.35693
      54      999        1     0.00000   33.90459    8.51064   27.66372
      55      999        1     0.00000   22.60709   28.07849    3.05010
      56      999        1     0.00000   22.60709   28.07849   15.35693
      57      999        1     0.00000   22.60709   28.07849   27.66372
      58      999        1     0.00000    9.56977    5.53907   21.56347
      59      999        1     0.00000    9.56977    5.53907   33.87029
      60      999        1     0.00000   -1.72773   25.10691    9.25668
      61      999        1     0.00000   -1.72773   25.10691   21.56347
      62      999        1     0.00000   -1.72773   25.10691   33.87029
      63      999        1     0.00000   32.16477    5.53907    9.25668
      64      999        1     0.00000   32.16477    5.53907   21.56347
      65      999        1     0.00000   32.16477    5.53907   33.87029
      66      999        1     0.00000   20.86727   25.10691    9.25668
      67      999        1     0.00000   20.86727   25.10691   21.56347
      68      999        1     0.00000   20.86727   25.10691   33.87029
      69      999        1     0.00000   13.01314    5.51813   21.56347
      70      999        1     0.00000   13.01314    5.51813   33.87029
      71      999        1     0.00000    1.71564   25.08598    9.25668
      72      999        1     0.00000    1.71564   25.08598   21.56347
      73      999        1     0.00000    1.71564   25.08598   33.87029
      74      999        1     0.00000   35.60814    5.51813    9.25668
      75      999        1     0.00000   35.60814    5.51813   21.56347
      76      999        1     0.00000   35.60814    5.51813   33.87029
      77      999        1     0.00000   24.31064   25.08598    9.25668
      78      999        1     0.00000   24.31064   25.08598   21.56347
      79      999        1     0.00000   24.31064   25.08598   33.87029
      80      999        1     0.00000   11.30959    8.51064   21.56347
      81      999        1     0.00000   11.30959    8.51064   33.87029
      82      999        1     0.00000    0.01209   28.07849    9.25668
      83      999        1     0.00000    0.01209   28.07849   21.56347
      84      999        1     0.00000    0.01209   28.07849   33.87029
      85      999        1     0.00000   33.90459    8.51064    9.25668
      86      999        1     0.00000   33.90459    8.51064   21.56347
      87      999        1     0.00000   33.90459    8.51064   33.87029
      88      999        1     0.00000   22.60709   28.07849    9.25668
      89      999        1     0.00000   22.60709   28.07849   21.56347
      90      999        1     0.00000   22.60709   28.07849   33.87029
      91      999        1     0.00000    0.01209   11.05720   21.56347
      92      999        1     0.00000    0.01209   11.05720   33.87029
      93      999        1     0.00000  -11.28541   30.62504    9.25668
      94      999        1     0.00000  -11.28541   30.62504   21.56347
      95      999        1     0.00000  -11.28541   30.62504   33.87029
      96      999        1     0.00000   22.60709   11.05720    9.25668
      97      999        1     0.00000   22.60709   11.05720   21.56347
      98      999        1     0.00000   22.60709   11.05720   33.87029
      99      999        1     0.00000   11.30959   30.62504    9.25668
     100      999        1     0.00000   11.30959   30.62504   21.56347
     101      999        1     0.00000   11.30959   30.62504   33.87029
     102      999        1     0.00000   -1.72773   14.02877   21.56347
     103      999        1     0.00000   -1.72773   14.02877   33.87029
     104      999        1     0.00000  -13.02523   33.59662    9.25668
     105      999        1     0.00000  -13.02523   33.59662   21.56347
     106      999        1     0.00000  -13.02523   33.59662   33.87029
     107      999        1     0.00000   20.86727   14.02877    9.25668
     108      999        1     0.00000   20.86727   14.02877   21.56347
     109      999        1     0.00000   20.86727   14.02877   33.87029
     110      999        1     0.00000    9.56977   33.59662    9.25668
     111      999        1     0.00000    9.56977   33.59662   21.56347
     112      999        1     0.00000    9.56977   33.59662   33.87029
     113      999        1     0.00000    1.71564   14.04971   21.56347
     114      999        1     0.00000    1.71564   14.04971   33.87029
     115      999        1     0.00000   -9.58186   33.61756    9.25668
     116      999        1     0.00000   -9.58186   33.61756   21.56347
     117      999        1     0.00000   -9.58186   33.61756   33.87029
     118      999        1     0.00000   24.31064   14.04971    9.25668
     119      999        1     0.00000   24.31064   14.04971   21.56347
     120      999        1     0.00000   24.31064   14.04971   33.87029
     121      999        1     0.00000   13.01314   33.61756    9.25668
     122      999        1     0.00000   13.01314   33.61756   21.56347
     123      999        1     0.00000   13.01314   33.61756   33.87029
     124      999        1     0.00000    0.01209   11.05720   15.35693
     125      999        1     0.00000    0.01209   11.05720   27.66372
     126      999        1     0.00000  -11.28541   30.62504    3.05010
     127      999        1     0.00000  -11.28541   30.62504   15.35693
     128      999        1     0.00000  -11.28541   30.62504   27.66372
     129      999        1     0.00000   22.60709   11.05720    3.05010
     130      999        1     0.00000   22.60709   11.05720   15.35693
     131      999        1     0.00000   22.60709   11.05720   27.66372
     132      999        1     0.00000   11.30959   30.62504    3.05010
     133      999        1     0.00000   11.30959   30.62504   15.35693
     134      999        1     0.00000   11.30959   30.62504   27.66372
     135      999        1     0.00000   -1.72773   14.02877   15.35693
     136      999        1     0.00000   -1.72773   14.02877   27.66372
     137      999        1     0.00000  -13.02523   33.59662    3.05010
     138      999        1     0.00000  -13.02523   33.59662   15.35693
     139      999        1     0.00000  -13.02523   33.59662   27.66372
     140      999        1     0.00000   20.86727   14.02877    3.05010
     141      999        1     0.00000   20.86727   14.02877   15.35693
     142      999        1     0.00000   20.86727   14.02877   27.66372
     143      999        1     0.00000    9.56977   33.59662    3.05010
     144      999        1     0.00000    9.56977   33.59662   15.35693
     145      999        1     0.00000    9.56977   33.59662   27.66372
     146      999        1     0.00000    1.71564   14.04971   15.35693
     147      999        1     0.00000    1.71564   14.04971   27.66372
     148      999        1     0.00000   -9.58186   33.61756    3.05010
     149      999        1     0.00000   -9.58186   33.61756   15.35693
     150      999        1     0.00000   -9.58186   33.61756   27.66372
     151      999        1     0.00000   24.31064   14.04971    3.05010
     152      999        1     0.00000   24.31064   14.04971   15.35693
     153      999        1     0.00000   24.31064   14.04971   27.66372
     154      999        1     0.00000   13.01314   33.61756    3.05010
     155      999        1     0.00000   13.01314   33.61756   15.35693
     156      999        1     0.00000   13.01314   33.61756   27.66372
     157      999        1     0.00000    9.49815    3.74274   12.30679
     158      999        1     0.00000    9.49815    3.74274   24.61361
     159      999        1     0.00000   -1.79935   23.31059    0.00000
     160      999        1     0.00000   -1.79935   23.31059   12.30679
     161      999        1     0.00000   -1.79935   23.31059   24.61361
     162      999        1     0.00000   32.09315    3.74274    0.00000
     163      999        1     0.00000   32.09315    3.74274   12.30679
     164      999        1     0.00000   32.09315    3.74274   24.61361
     165      999        1     0.00000   20.79565   23.31059    0.00000
     166      999        1     0.00000   20.79565   23.31059   12.30679
     167      999        1     0.00000   20.79565   23.31059   24.61361
     168      999        1     0.00000   14.60462    6.35427   12.30679
     169      999        1     0.00000   14.60462    6.35427   24.61361
     170      999        1     0.00000    3.30712   25.92211    0.00000
     171      999        1     0.00000    3.30712   25.92211   12.30679
     172      999        1     0.00000    3.30712   25.92211   24.61361
     173      999        1     0.00000   37.19962    6.35427    0.00000
     174      999        1     0.00000   37.19962    6.35427   12.30679
     175      999        1     0.00000   37.19962    6.35427   24.61361
     176      999        1     0.00000   25.90212   25.92211    0.00000
     177      999        1     0.00000   25.90212   25.92211   12.30679
     178      999        1     0.00000   25.90212   25.92211   24.61361
     179      999        1     0.00000    9.78974    9.47084   12.30679
     180      999        1     0.00000    9.78974    9.47084   24.61361
     181      999        1     0.00000   -1.50776   29.03868    0.00000
     182      999        1     0.00000   -1.50776   29.03868   12.30679
     183      999        1     0.00000   -1.50776   29.03868   24.61361
     184      999        1     0.00000   32.38473    9.47084    0.00000
     185      999        1     0.00000   32.38473    9.47084   12.30679
     186      999        1     0.00000   32.38473    9.47084   24.61361
     187      999        1     0.00000   21.08724   29.03868    0.00000
     188      999        1     0.00000   21.08724   29.03868   12.30679
     189      999        1     0.00000   21.08724   29.03868   24.61361
     190      999        1     0.00000   -1.50776   10.09701   12.30679
     191      999        1     0.00000   -1.50776   10.09701   24.61361
     192      999        1     0.00000  -12.80526   29.66485    0.00000
     193      999        1     0.00000  -12.80526   29.66485   12.30679
     194      999        1     0.00000  -12.80526   29.66485   24.61361
     195      999        1     0.00000   21.08724   10.09701    0.00000
     196      999        1     0.00000   21.08724   10.09701   12.30679
     197      999        1     0.00000   21.08724   10.09701   24.61361
     198      999        1     0.00000    9.78974   29.66485    0.00000
     199      999        1     0.00000    9.78974   29.66485   12.30679
     200      999        1     0.00000    9.78974   29.66485   24.61361
     201      999        1     0.00000   -1.79935   15.82510   12.30679
     202      999        1     0.00000   -1.79935   15.82510   24.61361
     203      999        1     0.00000  -13.09685   35.39295    0.00000
     204      999        1     0.00000  -13.09685   35.39295   12.30679
     205      999        1     0.00000  -13.09685   35.39295   24.61361
     206      999        1     0.00000   20.79565   15.82510    0.00000
     207      999        1     0.00000   20.79565   15.82510   12.30679
     208      999        1     0.00000   20.79565   15.82510   24.61361
     209      999        1     0.00000    9.49815   35.39295    0.00000
     210      999        1     0.00000    9.49815   35.39295   12.30679
     211      999        1     0.00000    9.49815   35.39295   24.61361
     212      999        1     0.00000    3.30712   13.21358   12.30679
     213      999        1     0.00000    3.30712   13.21358   24.61361
     214      999        1     0.00000   -7.99038   32.78142    0.00000
     215      999        1     0.00000   -7.99038   32.78142   12.30679
     216      999        1     0.00000   -7.99038   32.78142   24.61361
     217      999        1     0.00000   25.90212   13.21358    0.00000
     218      999        1     0.00000   25.90212   13.21358   12.30679
     219      999        1     0.00000   25.90212   13.21358   24.61361
     220      999        1     0.00000   14.60462   32.78142    0.00000
     221      999        1     0.00000   14.60462   32.78142   12.30679
     222      999        1     0.00000   14.60462   32.78142   24.61361
     223      999        1     0.00000    1.80082   15.81473   12.30679
     224      999        1     0.00000    1.80082   15.81473   24.61361
     225      999        1     0.00000   -9.49668   35.38257    0.00000
     226      999        1     0.00000   -9.49668   35.38257   12.30679
     227      999        1     0.00000   -9.49668   35.38257   24.61361
     228      999        1     0.00000   24.39582   15.81473    0.00000
     229      999        1     0.00000   24.39582   15.81473   12.30679
     230      999        1     0.00000   24.39582   15.81473   24.61361
     231      999        1     0.00000   13.09832   35.38257    0.00000
     232      999        1     0.00000   13.09832   35.38257   12.30679
     233      999        1     0.00000   13.09832   35.38257   24.61361
     234      999        1     0.00000   -3.29887   13.22004   12.30679
     235      999        1     0.00000   -3.29887   13.22004   24.61361
     236      999        1     0.00000  -14.59637   32.78788    0.00000
     237      999        1     0.00000  -14.59637   32.78788   12.30679
     238      999        1     0.00000  -14.59637   32.78788   24.61361
     239      999        1     0.00000   19.29613   13.22004    0.00000
     240      999        1     0.00000   19.29613   13.22004   12.30679
     241      999        1     0.00000   19.29613   13.22004   24.61361
     242      999        1     0.00000    7.99863   32.78788    0.00000
     243      999        1     0.00000    7.99863   32.78788   12.30679
     244      999        1     0.00000    7.99863   32.78788   24.61361
     245      999        1     0.00000    1.49805   10.10092   12.30679
     246      999        1     0.00000    1.49805   10.10092   24.61361
     247      999        1     0.00000   -9.79945   29.66876    0.00000
     248      999        1     0.00000   -9.79945   29.66876   12.30679
     249      999        1     0.00000   -9.79945   29.66876   24.61361
     250      999        1     0.00000   24.09305   10.10092    0.00000
     251      999        1     0.00000   24.09305   10.10092   12.30679
     252      999        1     0.00000   24.09305   10.10092   24.61361
     253      999        1     0.00000   12.79555   29.66876    0.00000
     254      999        1     0.00000   12.79555   29.66876   12.30679
     255      999        1     0.00000   12.79555   29.66876   24.61361
     256      999        1     0.00000   12.79555    9.46692   12.30679
     257      999        1     0.00000   12.79555    9.46692   24.61361
     258      999        1     0.00000    1.49805   29.03477    0.00000
     259      999        1     0.00000    1.49805   29.03477   12.30679
     260      999        1     0.00000    1.49805   29.03477   24.61361
     261      999        1     0.00000   35.39055    9.46692    0.00000
     262      999        1     0.00000   35.39055    9.46692   12.30679
     263      999        1     0.00000   35.39055    9.46692   24.61361
     264      999        1     0.00000   24.09305   29.03477    0.00000
     265      999        1     0.00000   24.09305   29.03477   12.30679
     266      999        1     0.00000   24.09305   29.03477   24.61361
     267      999        1     0.00000   13.09832    3.75311   12.30679
     268      999        1     0.00000   13.09832    3.75311   24.61361
     269      999        1     0.00000    1.80082   23.32096    0.00000
     270      999        1     0.00000    1.80082   23.32096   12.30679
     271      999        1     0.00000    1.80082   23.32096   24.61361
     272      999        1     0.00000   35.69332    3.75311    0.00000
     273      999        1     0.00000   35.69332    3.75311   12.30679
     274      999        1     0.00000   35.69332    3.75311   24.61361
     275      999        1     0.00000   24.39582   23.32096    0.00000
     276      999        1     0.00000   24.39582   23.32096   12.30679
     277      999        1     0.00000   24.39582   23.32096   24.61361
     278      999        1     0.00000    7.99863    6.34781   12.30679
     279      999        1     0.00000    7.99863    6.34781   24.61361
     280      999        1     0.00000   -3.29887   25.91565    0.00000
     281      999        1     0.00000   -3.29887   25.91565   12.30679
     282      999        1     0.00000   -3.29887   25.91565   24.61361
     283      999        1     0.00000   30.59363    6.34781    0.00000
     284      999        1     0.00000   30.59363    6.34781   12.30679
     285      999        1     0.00000   30.59363    6.34781   24.61361
     286      999        1     0.00000   19.29613   25.91565    0.00000
     287      999        1     0.00000   19.29613   25.91565   12.30679
     288      999        1     0.00000   19.29613   25.91565   24.61361
     289      999        2     0.00000    7.38924    2.15794    7.51046
     290      999        2     0.00000   17.03155    5.32030    7.51046
     291      999        2     0.00000    9.47171   12.08960    7.51046
     292      999        2     0.00000    7.38924    2.15794    4.79633
     293      999        2     0.00000   17.03155    5.32030    4.79633
     294      999        2     0.00000    9.47171   12.08960    4.79633
     295      999        2     0.00000   -1.82579    7.47824    4.79633
     296      999        2     0.00000   -3.90826   17.40990    4.79633
     297      999        2     0.00000    5.73405   14.24754    4.79633
     298      999        2     0.00000   -1.82579    7.47824    7.51046
     299      999        2     0.00000   -3.90826   17.40990    7.51046
     300      999        2     0.00000    5.73405   14.24754    7.51046
     301      999        2     0.00000    3.92622   17.41010    7.51858
     302      999        2     0.00000   -5.74320   14.26300    7.51858
     303      999        2     0.00000    1.81698    7.46259    7.51858
     304      999        2     0.00000    3.92622   17.41010    4.78821
     305      999        2     0.00000   -5.74320   14.26300    4.78821
     306      999        2     0.00000    1.81698    7.46259    4.78821
     307      999        2     0.00000   13.11448   12.10526    4.78821
     308      999        2     0.00000   15.22372    2.15775    4.78821
     309      999        2     0.00000    5.55430    5.30484    4.78821
     310      999        2     0.00000   13.11448   12.10526    7.51858
     311      999        2     0.00000   15.22372    2.15775    7.51858
     312      999        2     0.00000    5.55430    5.30484    7.51858
     313      999        2     0.00000    5.84804   16.42329    0.00000
     314      999        2     0.00000   -5.84951   16.42075    0.00000
     315      999        2     0.00000    0.00147    6.29165    0.00000
     316      999        2     0.00000   11.29897   13.27619    0.00000
     317      999        2     0.00000   17.14554    3.14455    0.00000
     318      999        2     0.00000    5.44799    3.14710    0.00000
     319      999        2     0.00000    7.67880   15.07057    6.15341
     320      999        2     0.00000   -5.59339   18.68259    6.15341
     321      999        2     0.00000   -2.08541    5.38253    6.15341
     322      999        2     0.00000    9.21209   14.18532    6.15341
     323      999        2     0.00000   18.97630    4.49728    6.15341
     324      999        2     0.00000    5.70411    0.88525    6.15341
     325      999        2     0.00000    3.61531    4.48945    6.15341
     326      999        2     0.00000   16.89937    0.88623    6.15341
     327      999        2     0.00000   13.37782   14.19217    6.15341
     328      999        2     0.00000    2.08032    5.37568    6.15341
     329      999        2     0.00000   -7.68219   15.07839    6.15341
     330      999        2     0.00000    5.60187   18.68162    6.15341
     331      999        2     0.00000   13.22734    3.92374    6.15341
     332      999        2     0.00000   12.58327    9.49334    6.15341
     333      999        2     0.00000    8.08189    6.15076    6.15341
     334      999        2     0.00000   -3.21561   13.41708    6.15341
     335      999        2     0.00000    1.92984   15.64410    6.15341
     336      999        2     0.00000    1.28577   10.07450    6.15341
     337      999        2     0.00000    6.49923   11.25699   10.49894
     338      999        2     0.00000    9.59655    0.00000   10.49894
     339      999        2     0.00000   17.79673    8.31085   10.49894
     340      999        2     0.00000    6.49923   11.25699    1.80788
     341      999        2     0.00000    9.59655    0.00000    1.80788
     342      999        2     0.00000   17.79673    8.31085    1.80788
     343      999        2     0.00000    4.79997    8.31379   10.49241
     344      999        2     0.00000   12.99506    0.00000   10.49241
     345      999        2     0.00000   -6.49753   11.25405   10.49241
     346      999        2     0.00000    4.79997    8.31379    1.81438
     347      999        2     0.00000   12.99506    0.00000    1.81438
     348      999        2     0.00000   -6.49753   11.25405    1.81438
     349      999        2     0.00000    7.38924    2.15794   19.81728
     350      999        2     0.00000    7.38924    2.15794   32.12407
     351      999        2     0.00000   -3.90826   21.72579    7.51046
     352      999        2     0.00000   -3.90826   21.72579   19.81728
     353      999        2     0.00000   -3.90826   21.72579   32.12407
     354      999        2     0.00000   29.98424    2.15794    7.51046
     355      999        2     0.00000   29.98424    2.15794   19.81728
     356      999        2     0.00000   29.98424    2.15794   32.12407
     357      999        2     0.00000   18.68674   21.72579    7.51046
     358      999        2     0.00000   18.68674   21.72579   19.81728
     359      999        2     0.00000   18.68674   21.72579   32.12407
     360      999        2     0.00000   17.03155    5.32030   19.81728
     361      999        2     0.00000   17.03155    5.32030   32.12407
     362      999        2     0.00000    5.73405   24.88814    7.51046
     363      999        2     0.00000    5.73405   24.88814   19.81728
     364      999        2     0.00000    5.73405   24.88814   32.12407
     365      999        2     0.00000   39.62655    5.32030    7.51046
     366      999        2     0.00000   39.62655    5.32030   19.81728
     367      999        2     0.00000   39.62655    5.32030   32.12407
     368      999        2     0.00000   28.32905   24.88814    7.51046